CRYSTAL
PRIMVEC
 12.25965239460213 0.00000000000000 0.00000000000000
 -0.06107085259851 14.75572856483362 0.00000000000000
 -2.88660129478218 -0.02527652328031 13.95772688253298
PRIMCOORD
 143 1
 13    -1.47263483269733     7.49992603641923     6.94416430014970
 13    -0.11137213265043     0.15279261889191    -0.08343225483694
 13     7.73796294852821     6.46042543973382     7.77364443243792
 13     0.02221168778262    13.96795706960690    13.11235261757431
 13     1.53709734433498     8.37694749790448     6.16213146375883
 13     9.10300070116510     1.00336030668096     0.90606653679147
 13     4.73256123405055     7.53076810769254     7.17030300535027
 13     6.13689071639664     0.02274276663209     0.02438304196733
  8     8.89236736416936     5.08498605695171     8.30297166947572
  8    -1.03254142726516    12.64412842982467    12.38280957195352
  8     0.48685194080578     9.78305178431484     5.38807153416546
  8    10.30863978951081     2.32658728046265     1.66633134945510
  8     1.19085418206849    13.27235072721775    11.73774292062327
  8     6.48178360284751     5.74306750468774     9.07795546451906
  8     7.81825441652304     1.58253211118010     2.29588563721702
  8     2.82061828948759     9.05851075769730     4.84318936460890
  8     9.02227618314014     7.14527796105861     6.50638662181340
  8     1.63503418803524    14.49640826757737     0.32061832643998
  8     0.29028322085840     7.85062189461882     7.33767795701012
  8     7.53882465717238     0.59586905255376    13.49461781925301
  1     8.82503245512314     6.50119252241944     5.81685240854539
  1     1.72648897001898    14.22302271662400     1.25867730721755
  1     0.67973183629218     7.56865567145574     8.25833816631878
  1     7.55588703460389     1.07340789157580    12.65840614101954
  8    -0.46459406427856     0.57207850794342    11.90678552979541
  8     8.43321014812275     7.62645464296232     9.09218240990852
  8     9.63501704885861    14.46025189775001     2.08826437225927
  8     1.09254043874968     7.03743457631258     4.76941276957384
  8     6.58889694493161     7.85141819297983     7.32011254152255
  8     1.47098754942455     0.31365071299130    13.87130204378491
  8     2.88921718805804     7.21486258222587     6.77396920539706
  8     7.90892496766949    14.53001438768262     0.17353940986131
  1     6.80463875808289     8.54883024788968     6.62590301306088
  1     1.04226335319877     1.04762879319466    14.31800172503010
  1     2.64656388540249     6.34943845289217     7.14915943727856
  1     8.13150244131779    13.60209597819082     0.08780772675970
  8    -1.36833698114605     6.01747463379510     8.16546729738330
  8     8.99936013885642    13.19640293825976    12.77611196128079
  8    10.62885344696200     9.01813573516405     5.79120622863045
  8     0.07398069447512     1.68312170219857     0.93756194231049
  8     2.21777535900101     9.77481427584430     7.41726278400989
  8     5.60080437490076     2.41642615266888    13.60988998710254
  8     7.15169264098471     5.22570345071484     6.48615920076644
  8     3.44717097464512    12.58732501477020     0.50481624132311
  8    -2.61249582787983     1.16132995125119    12.28458291413821
  8    10.36515130115548     8.66637242276625     8.40841897083202
  8    11.63858004629963    13.74294931893385     1.44020896370477
  8    -0.94471808800448     6.35132919627218     5.52318191266234
  8     4.31252319257140     8.99776051013341     8.04212027666719
  8     3.42187410698522     1.86939868203739    13.50507471985191
  8     4.99252887533674     5.76221756085753     6.25978746333094
  8     5.72117619463329    13.03457509771652     0.70365224962038
  8     3.30737783026962    14.04684024931935    12.19674814760746
  8     4.44069630081531     6.54206846056245     8.70019502463384
  8     5.87252496574473     0.53766126477913     1.97342777749369
  8     4.86326824946113     8.56476792544703     5.50644437441299
  7     4.59975752614662    11.17065009197045     9.80248291791500
  7     3.14606206345474     3.82111176272249    11.48010202372879
  7     4.66214847000118     3.82254397492854     4.36969182773662
  7     6.00813100234862    11.08743105216241     2.51526825933227
  1     5.46035267254005    10.66153610751779     9.77980370676982
  1     2.20899866486010     3.63714962897302    11.88228528244141
  1     3.83467931052383     4.11956546442146     4.71520788282946
  1     6.89543441649803    11.52527486201955     2.33273343592635
  7     4.38644823259406    12.12928470730868    10.72321557949641
  7     3.29110368735442     4.67785593538780    10.48379239601053
  7     4.70508059358382     2.78061629263097     3.46379288681263
  7     5.88513736340054    10.33082859149043     3.58573380621831
  7    -0.12188528036572     3.19075868082748    10.75255217614460
  7     7.96768486309104     9.78274039324342    10.84610537283861
  7     9.23774203784122    11.79781649804769     3.16432042886733
  7     1.39787844356641     4.42046680775688     3.73897133923288
  7    -0.38310506050958     4.19804001795589     9.96009948641565
  7     8.29592493120289    10.83441970274508    11.61806821337123
  7     9.60529692274439    10.80178917748065     3.93720064008514
  7     1.13972933471351     3.45104045901812     2.89019608441273
  1     0.37259397036435     4.92773628722896     9.74126986359389
  1     7.58397566111474    11.12950336100083    12.29095515777768
  1     8.93959368514815    10.25354060807486     4.39548882402575
  1     1.90949752669676     2.89120918286391     2.52527853801230
  6     9.98817363051985     3.00171039274202     9.90460053160898
  6    -2.14799482561300    10.64115384508299    10.30089005038345
  6    -0.74408823269781    11.84041092431906     3.65530898543524
  6    11.39659877464167     4.41990082516144     3.15979981002942
  1     8.97230294930335     2.64902140133536     9.68664353075485
  1    -1.17548442732597    10.64247263374280     9.94044719021310
  1     0.30574855785157    12.13509079919443     3.80137877514182
  1    10.36057812425161     4.53046662394533     3.27644277860686
  6    10.08120940524804     5.17626504659421     8.56611338143781
  6    -2.28483121165765    12.53237067794158    12.15855930122693
  6    -0.76526432406569     9.76493644224447     5.21976512013563
  6    11.56864116984872     2.41484522031164     1.64215110598795
  6     3.33582747931665     9.77862297138437     8.11245588135172
  6     4.44965790152797     2.47746549808497    13.13696353597932
  6     6.00832568222253     5.12314089446933     5.94804275407667
  6     4.65860390037408    12.41107766709610     0.97121300672595
  6    -1.46723466067344     1.33054043744381    11.81933727796214
  6     9.29651265572339     8.56699978132808     9.14365689764573
  6    10.59435377703221    13.58827813605294     2.06969307842252
  6     0.08618150578467     6.21877455016820     4.79579660525129
  6     2.41474851294555    13.34684024129380    11.54334994078929
  6     5.23016537151905     5.80310643190838     9.33834767996302
  6     6.60385218587648     1.43868349719083     2.46881408437077
  6     4.04795769885432     9.20979869347348     4.75734472209889
  6     2.46901517092662    11.73583832152992     9.53718457820431
  6     5.29524481863172     4.11885386127280    11.38846186524833
  6     6.77460421512805     3.24471500649072     4.26068520709145
  6     3.80747143077268    10.66129649218844     2.70972044054247
  1     1.46324238161357    11.81458994005426     9.27147149526398
  1     6.40443209814857     4.12868736205907    11.59215114066660
  1     7.85670145786296     3.17136807918310     4.32346944429534
  1     2.77166036988817    10.61187517891744     2.52121132429000
  6    -1.29134014898176     2.48925052288832    10.79661810826175
  6     9.09977579506704     9.63773788407199    10.11500002079152
  6    10.43359463781863    12.39517659840600     2.91478401566811
  6     0.16708572717975     5.00151447850618     3.92656748107035
  6    -1.68396803755953     4.17800251611937     9.47082267976145
  6     9.50787706692556    11.41773902265033    11.34703204155952
  6    10.92945117813190    10.75243892928603     4.28879185692601
  6    -0.16619704567159     3.41793043689499     2.51477052762086
  6     3.08695800155040    12.45840366085008    10.57484257044443
  6     4.64708921854814     4.90131516268223    10.39667571438748
  6     6.00186810447665     2.48804982976074     3.36402868520584
  6     4.58298009617577    10.06117536028832     3.72232578858047
  6     3.43519763023643    10.83578783167494     9.10993781634929
  6     4.31611363665795     3.44593023949548    12.06812705266304
  6     5.90775884560424     4.08215722285972     4.88264045950308
  6     4.77690745063995    11.35978667147325     1.95089304116846
  8     0.48127214480564     6.91707316731532    12.54602680755780
  1    -0.16258828252643     6.16458907771959    12.67527007297647
  1     0.78373150756887     7.16177282840657    13.43889564265411
  8     1.16711612241915     6.78499201224867     9.72267094659898
  1     0.95530088503470     7.00448135508085    10.66880103337291
  1     2.09527001944975     6.71132164339164     9.55894076257482
  8     8.34173365320608     5.93555010143670    11.62432788314268
  1     7.91978120647753     5.78808638427846    10.78474677191995
  1     8.25916763951694     6.88257802303613    11.73607798465725
  8     1.35668984187378     4.93117839186672    -1.05485537233125
  1     0.69598235607484     5.10844139478390    -1.73572471074605
  1     1.00880963618058     4.94292804451249    -0.17329553132328
  8     5.93871655349815    11.62891999733469    13.08025090585620
  1     5.62272332134619    10.78449109241446    13.41068608429688
  1     5.40305329915271    11.94994789051285    12.35343425398855
