3
total_energy=-467.837350
O        0.00586942      -0.37973335       0.08697355
H       -0.56832492       0.06749665      -0.56464172
H        0.56245550       0.31223670       0.47766816
